<?xml version="1.0" encoding="UTF-8"?>

<!-- generated on 2024-11-17 20:48:49 by Eclipse SUMO GUI Version 1.11.0
<configuration xmlns:xsi="http://www.w3.org/2001/XMLSchema-instance" xsi:noNamespaceSchemaLocation="http://sumo.dlr.de/xsd/sumoConfiguration.xsd">

    <input>
        <net-file value="lust.net.xml"/>
        <route-files value="buslines.rou.xml,due.local.actuated.0.rou.xml,due.local.actuated.1.rou.xml,due.local.actuated.2.rou.xml"/>
        <additional-files value="vtypes.add.xml,lust.add.xml,lust.poly.xml"/>
    </input>

    <output>
        <summary-output value="due.actuated.summary.xml"/>
        <tripinfo-output value="due.actuated.tripinfo.xml"/>
    </output>

    <time>
        <begin value="0"/>
        <end value="86400"/>
        <step-length value="0.1"/>
    </time>

    <processing>
        <ignore-junction-blocker value="20"/>
        <scale value="1"/>
        <time-to-teleport value="600"/>
        <max-depart-delay value="600"/>
    </processing>

    <routing>
        <routing-algorithm value="dijkstra"/>
    </routing>

    <report>
        <verbose value="true"/>
        <log value="due.actuated.log"/>
    </report>

    <gui_only>
        <gui-settings-file value="gui-settings.cfg.xml"/>
        <start value="true"/>
        <tracker-interval value="0.1"/>
    </gui_only>

</configuration>
-->

<tripinfos xmlns:xsi="http://www.w3.org/2001/XMLSchema-instance" xsi:noNamespaceSchemaLocation="http://sumo.dlr.de/xsd/tripinfo_file.xsd">
    <tripinfo id="randUni1024:1" depart="239.60" departLane="-30892#20_0" departPos="23.29" departSpeed="0.00" departDelay="0.09" arrival="366.70" arrivalLane="-32558_0" arrivalPos="26.40" arrivalSpeed="0.91" duration="127.10" routeLength="876.19" waitingTime="47.10" waitingCount="2" stopTime="0.00" timeLoss="59.88" rerouteNo="0" devices="tripinfo_randUni1024:1" vType="passenger2b" speedFactor="0.94" vaporized=""/>
    <tripinfo id="randUni19500:1" depart="302.00" departLane="-30552_0" departPos="21.70" departSpeed="0.00" departDelay="0.01" arrival="375.70" arrivalLane="--30968#1_0" arrivalPos="43.38" arrivalSpeed="0.77" duration="73.70" routeLength="898.90" waitingTime="0.00" waitingCount="0" stopTime="0.00" timeLoss="10.89" rerouteNo="0" devices="tripinfo_randUni19500:1" vType="passenger2b" speedFactor="1.03" vaporized=""/>
    <tripinfo id="randUni7144:1" depart="522.00" departLane="-32618#5_0" departPos="13.80" departSpeed="0.00" departDelay="0.00" arrival="564.30" arrivalLane="-31066#8_1" arrivalPos="9.09" arrivalSpeed="1.02" duration="42.30" routeLength="521.93" waitingTime="0.00" waitingCount="0" stopTime="0.00" timeLoss="6.38" rerouteNo="0" devices="tripinfo_randUni7144:1" vType="passenger1" speedFactor="1.05" vaporized=""/>
    <tripinfo id="randUni1785:1" depart="434.70" departLane="-31340#0_0" departPos="355.54" departSpeed="0.00" departDelay="0.09" arrival="600.20" arrivalLane="-31066#8_1" arrivalPos="122.95" arrivalSpeed="1.12" duration="165.50" routeLength="1809.96" waitingTime="0.00" waitingCount="0" stopTime="0.00" timeLoss="8.71" rerouteNo="0" devices="tripinfo_randUni1785:1" vType="passenger1" speedFactor="0.83" vaporized=""/>
    <tripinfo id="randUni18347:1" depart="577.00" departLane="--30892#25_0" departPos="184.46" departSpeed="0.00" departDelay="0.00" arrival="674.60" arrivalLane="-31066#8_1" arrivalPos="155.29" arrivalSpeed="0.90" duration="97.60" routeLength="649.16" waitingTime="35.00" waitingCount="1" stopTime="0.00" timeLoss="44.86" rerouteNo="0" devices="tripinfo_randUni18347:1" vType="passenger1" speedFactor="0.89" vaporized=""/>
    <tripinfo id="randUni4182:1" depart="632.40" departLane="-31340#0_0" departPos="172.47" departSpeed="0.00" departDelay="0.00" arrival="709.30" arrivalLane="--30740#2_0" arrivalPos="0.47" arrivalSpeed="0.92" duration="76.90" routeLength="902.22" waitingTime="0.00" waitingCount="0" stopTime="0.00" timeLoss="7.65" rerouteNo="0" devices="tripinfo_randUni4182:1" vType="passenger1" speedFactor="0.94" vaporized=""/>
    <tripinfo id="randUni11559:1" depart="753.00" departLane="-30740#0_0" departPos="113.57" departSpeed="0.00" departDelay="0.00" arrival="795.10" arrivalLane="--31340#0_0" arrivalPos="300.61" arrivalSpeed="1.04" duration="42.10" routeLength="530.85" waitingTime="0.00" waitingCount="0" stopTime="0.00" timeLoss="7.06" rerouteNo="0" devices="tripinfo_randUni11559:1" vType="passenger1" speedFactor="1.09" vaporized=""/>
    <tripinfo id="randUni3220:1" depart="661.10" departLane="--30892#26_0" departPos="14.61" departSpeed="0.00" departDelay="0.02" arrival="835.90" arrivalLane="--30892#20_0" arrivalPos="21.09" arrivalSpeed="0.82" duration="174.80" routeLength="1101.46" waitingTime="70.30" waitingCount="2" stopTime="0.00" timeLoss="82.27" rerouteNo="0" devices="tripinfo_randUni3220:1" vType="passenger2b" speedFactor="0.86" vaporized=""/>
    <tripinfo id="randUni13901:1" depart="775.30" departLane="-31340#0_0" departPos="537.48" departSpeed="0.00" departDelay="0.01" arrival="844.90" arrivalLane="-30544_0" arrivalPos="26.59" arrivalSpeed="0.92" duration="69.60" routeLength="885.39" waitingTime="0.00" waitingCount="0" stopTime="0.00" timeLoss="7.49" rerouteNo="0" devices="tripinfo_randUni13901:1" vType="passenger2b" speedFactor="1.03" vaporized=""/>
    <tripinfo id="randUni12682:1" depart="886.00" departLane="--31066#4_0" departPos="50.65" departSpeed="0.00" departDelay="0.00" arrival="938.80" arrivalLane="--31340#0_0" arrivalPos="29.79" arrivalSpeed="0.99" duration="52.80" routeLength="630.92" waitingTime="0.00" waitingCount="0" stopTime="0.00" timeLoss="6.98" rerouteNo="0" devices="tripinfo_randUni12682:1" vType="passenger5" speedFactor="0.99" vaporized=""/>
    <tripinfo id="randUni690:1" depart="880.00" departLane="-30968#2_0" departPos="20.77" departSpeed="0.00" departDelay="0.00" arrival="953.60" arrivalLane="--30892#20_0" arrivalPos="21.42" arrivalSpeed="1.11" duration="73.60" routeLength="657.98" waitingTime="19.70" waitingCount="1" stopTime="0.00" timeLoss="31.42" rerouteNo="0" devices="tripinfo_randUni690:1" vType="passenger2a" speedFactor="1.12" vaporized=""/>
    <tripinfo id="randUni15016:1" depart="835.00" departLane="-31340#1_0" departPos="48.90" departSpeed="0.00" departDelay="0.00" arrival="963.70" arrivalLane="--30892#20_0" arrivalPos="10.09" arrivalSpeed="0.95" duration="128.70" routeLength="1297.04" waitingTime="26.80" waitingCount="1" stopTime="0.00" timeLoss="39.52" rerouteNo="0" devices="tripinfo_randUni15016:1" vType="passenger2b" speedFactor="1.05" vaporized=""/>
    <tripinfo id="randUni1008:1" depart="906.10" departLane="-30892#20_0" departPos="7.42" departSpeed="0.00" departDelay="0.01" arrival="1049.80" arrivalLane="--31066#0_1" arrivalPos="1.52" arrivalSpeed="0.99" duration="143.70" routeLength="1387.95" waitingTime="21.30" waitingCount="1" stopTime="0.00" timeLoss="35.89" rerouteNo="0" devices="tripinfo_randUni1008:1" vType="passenger1" speedFactor="0.93" vaporized=""/>
    <tripinfo id="randUni1444:1" depart="949.00" departLane="--30348#4_0" departPos="3.58" departSpeed="0.00" departDelay="0.00" arrival="1073.90" arrivalLane="--30892#20_0" arrivalPos="9.62" arrivalSpeed="1.08" duration="124.90" routeLength="990.99" waitingTime="30.10" waitingCount="2" stopTime="0.00" timeLoss="43.69" rerouteNo="0" devices="tripinfo_randUni1444:1" vType="passenger2a" speedFactor="0.88" vaporized=""/>
    <tripinfo id="randUni5421:1" depart="987.40" departLane="-30892#20_0" departPos="0.93" departSpeed="0.00" departDelay="0.00" arrival="1087.80" arrivalLane="-31740#1_0" arrivalPos="16.81" arrivalSpeed="0.96" duration="100.40" routeLength="861.82" waitingTime="20.90" waitingCount="2" stopTime="0.00" timeLoss="34.13" rerouteNo="0" devices="tripinfo_randUni5421:1" vType="passenger2b" speedFactor="0.94" vaporized=""/>
    <tripinfo id="randUni7419:1" depart="983.10" departLane="-30892#20_0" departPos="29.97" departSpeed="0.00" departDelay="0.01" arrival="1095.90" arrivalLane="-30892#26_0" arrivalPos="153.04" arrivalSpeed="0.98" duration="112.80" routeLength="1007.28" waitingTime="25.70" waitingCount="2" stopTime="0.00" timeLoss="35.77" rerouteNo="0" devices="tripinfo_randUni7419:1" vType="passenger1" speedFactor="0.94" vaporized=""/>
    <tripinfo id="randUni5536:1" depart="1161.60" departLane="-30552_0" departPos="60.06" departSpeed="0.00" departDelay="0.05" arrival="1244.30" arrivalLane="--31340#0_0" arrivalPos="492.99" arrivalSpeed="0.71" duration="82.70" routeLength="1107.05" waitingTime="0.00" waitingCount="0" stopTime="0.00" timeLoss="13.89" rerouteNo="0" devices="tripinfo_randUni5536:1" vType="passenger5" speedFactor="1.16" vaporized=""/>
    <tripinfo id="randUni18554:1" depart="1207.40" departLane="--31066#8_0" departPos="55.33" departSpeed="0.00" departDelay="0.03" arrival="1270.50" arrivalLane="--31066#6_0" arrivalPos="13.04" arrivalSpeed="1.15" duration="63.10" routeLength="800.55" waitingTime="0.00" waitingCount="0" stopTime="0.00" timeLoss="6.50" rerouteNo="0" devices="tripinfo_randUni18554:1" vType="passenger1" speedFactor="1.02" vaporized=""/>
    <tripinfo id="randUni5067:1" depart="1397.20" departLane="--32558_0" departPos="7.19" departSpeed="0.00" departDelay="0.03" arrival="1412.20" arrivalLane="-30892#26_0" arrivalPos="99.38" arrivalSpeed="0.72" duration="15.00" routeLength="131.01" waitingTime="0.00" waitingCount="0" stopTime="0.00" timeLoss="3.58" rerouteNo="0" devices="tripinfo_randUni5067:1" vType="passenger2a" speedFactor="0.83" vaporized=""/>
    <tripinfo id="randUni9974:1" depart="1342.70" departLane="-30892#20_0" departPos="6.99" departSpeed="0.00" departDelay="0.09" arrival="1435.50" arrivalLane="-30970#0_0" arrivalPos="34.85" arrivalSpeed="0.91" duration="92.80" routeLength="1080.67" waitingTime="1.70" waitingCount="1" stopTime="0.00" timeLoss="15.78" rerouteNo="0" devices="tripinfo_randUni9974:1" vType="passenger2b" speedFactor="1.01" vaporized=""/>
    <tripinfo id="randUni11209:1" depart="1363.30" departLane="-31340#0_0" departPos="109.51" departSpeed="0.00" departDelay="0.00" arrival="1454.80" arrivalLane="--30552_0" arrivalPos="11.63" arrivalSpeed="0.74" duration="91.50" routeLength="1121.41" waitingTime="0.00" waitingCount="0" stopTime="0.00" timeLoss="8.70" rerouteNo="0" devices="tripinfo_randUni11209:1" vType="passenger2b" speedFactor="0.98" vaporized=""/>
    <tripinfo id="randUni16751:1" depart="1396.80" departLane="-30892#20_0" departPos="17.91" departSpeed="0.00" departDelay="0.07" arrival="1470.90" arrivalLane="--30640#1_0" arrivalPos="6.89" arrivalSpeed="0.87" duration="74.10" routeLength="665.53" waitingTime="10.20" waitingCount="1" stopTime="0.00" timeLoss="20.24" rerouteNo="0" devices="tripinfo_randUni16751:1" vType="passenger4" speedFactor="0.89" vaporized=""/>
    <tripinfo id="randUni8293:1" depart="1466.00" departLane="--30640#0_0" departPos="65.94" departSpeed="0.00" departDelay="0.00" arrival="1547.20" arrivalLane="--30552_0" arrivalPos="86.74" arrivalSpeed="0.98" duration="81.20" routeLength="883.82" waitingTime="0.00" waitingCount="0" stopTime="0.00" timeLoss="8.29" rerouteNo="0" devices="tripinfo_randUni8293:1" vType="passenger1" speedFactor="0.87" vaporized=""/>
    <tripinfo id="randUni18499:1" depart="1537.00" departLane="-32914#1_0" departPos="12.50" departSpeed="0.00" departDelay="0.00" arrival="1574.50" arrivalLane="--30552_0" arrivalPos="8.01" arrivalSpeed="1.06" duration="37.50" routeLength="418.96" waitingTime="0.00" waitingCount="0" stopTime="0.00" timeLoss="5.72" rerouteNo="0" devices="tripinfo_randUni18499:1" vType="passenger1" speedFactor="0.95" vaporized=""/>
    <tripinfo id="randUni18419:1" depart="1477.60" departLane="--30892#26_0" departPos="226.66" departSpeed="0.00" departDelay="0.07" arrival="1625.30" arrivalLane="--30552_0" arrivalPos="73.00" arrivalSpeed="1.16" duration="147.70" routeLength="1160.76" waitingTime="48.10" waitingCount="1" stopTime="0.00" timeLoss="56.60" rerouteNo="0" devices="tripinfo_randUni18419:1" vType="passenger2a" speedFactor="0.92" vaporized=""/>
    <tripinfo id="randUni17833:1" depart="1614.70" departLane="-30892#20_0" departPos="15.43" departSpeed="0.00" departDelay="0.00" arrival="1690.40" arrivalLane="--31066#6_0" arrivalPos="58.65" arrivalSpeed="1.12" duration="75.70" routeLength="857.49" waitingTime="0.90" waitingCount="1" stopTime="0.00" timeLoss="9.42" rerouteNo="0" devices="tripinfo_randUni17833:1" vType="passenger2a" speedFactor="0.93" vaporized=""/>
    <tripinfo id="randUni11061:1" depart="1588.00" departLane="--30892#26_0" departPos="74.61" departSpeed="0.00" departDelay="0.08" arrival="1754.20" arrivalLane="-31066#8_1" arrivalPos="139.24" arrivalSpeed="1.03" duration="166.20" routeLength="1614.76" waitingTime="35.50" waitingCount="2" stopTime="0.00" timeLoss="63.49" rerouteNo="0" devices="tripinfo_randUni11061:1" vType="passenger4" speedFactor="1.13" vaporized=""/>
    <tripinfo id="randUni15024:1" depart="1744.50" departLane="-30552_0" departPos="24.45" departSpeed="0.00" departDelay="0.01" arrival="1794.70" arrivalLane="--32984#0_0" arrivalPos="0.20" arrivalSpeed="0.90" duration="50.20" routeLength="662.37" waitingTime="0.00" waitingCount="0" stopTime="0.00" timeLoss="8.90" rerouteNo="0" devices="tripinfo_randUni15024:1" vType="passenger2a" speedFactor="1.15" vaporized=""/>
    <tripinfo id="randUni12109:1" depart="1721.70" departLane="-30892#20_0" departPos="0.87" departSpeed="0.00" departDelay="0.03" arrival="1815.90" arrivalLane="-30892#26_0" arrivalPos="144.04" arrivalSpeed="0.72" duration="94.20" routeLength="1027.38" waitingTime="13.20" waitingCount="2" stopTime="0.00" timeLoss="31.44" rerouteNo="0" devices="tripinfo_randUni12109:1" vType="passenger4" speedFactor="1.18" vaporized=""/>
    <tripinfo id="randUni15028:1" depart="1746.00" departLane="--32918#0_0" departPos="43.94" departSpeed="0.00" departDelay="0.00" arrival="1877.60" arrivalLane="-32528#2_0" arrivalPos="0.03" arrivalSpeed="0.40" duration="131.60" routeLength="906.11" waitingTime="51.10" waitingCount="1" stopTime="0.00" timeLoss="66.70" rerouteNo="0" devices="tripinfo_randUni15028:1" vType="passenger1" speedFactor="1.01" vaporized=""/>
    <tripinfo id="randUni4895:1" depart="1853.00" departLane="--32874#0_0" departPos="1.39" departSpeed="0.00" departDelay="0.00" arrival="1888.80" arrivalLane="--30552_0" arrivalPos="16.49" arrivalSpeed="0.80" duration="35.80" routeLength="406.63" waitingTime="0.00" waitingCount="0" stopTime="0.00" timeLoss="6.38" rerouteNo="0" devices="tripinfo_randUni4895:1" vType="passenger1" speedFactor="0.99" vaporized=""/>
    <tripinfo id="randUni5874:1" depart="1815.70" departLane="-31340#0_0" departPos="605.16" departSpeed="0.00" departDelay="0.03" arrival="1952.20" arrivalLane="-32558_1" arrivalPos="28.29" arrivalSpeed="1.11" duration="136.50" routeLength="1330.68" waitingTime="31.70" waitingCount="1" stopTime="0.00" timeLoss="54.75" rerouteNo="0" devices="tripinfo_randUni5874:1" vType="passenger2a" speedFactor="1.17" vaporized=""/>
    <tripinfo id="randUni4890:1" depart="1857.20" departLane="-31340#0_0" departPos="116.70" departSpeed="0.00" departDelay="0.05" arrival="2051.90" arrivalLane="--30892#23_0" arrivalPos="26.62" arrivalSpeed="0.78" duration="194.70" routeLength="1575.34" waitingTime="67.40" waitingCount="2" stopTime="0.00" timeLoss="83.48" rerouteNo="0" devices="tripinfo_randUni4890:1" vType="passenger2a" speedFactor="1.02" vaporized=""/>
    <tripinfo id="randUni6332:1" depart="2360.60" departLane="--30892#26_0" departPos="137.48" departSpeed="0.00" departDelay="0.09" arrival="2438.50" arrivalLane="--30892#20_0" arrivalPos="31.09" arrivalSpeed="1.04" duration="77.90" routeLength="988.59" waitingTime="6.00" waitingCount="1" stopTime="0.00" timeLoss="17.57" rerouteNo="0" devices="tripinfo_randUni6332:1" vType="passenger1" speedFactor="1.18" vaporized=""/>
    <tripinfo id="randUni18177:1" depart="2312.50" departLane="--30892#26_0" departPos="20.85" departSpeed="0.00" departDelay="0.06" arrival="2442.20" arrivalLane="-31066#5_1" arrivalPos="24.99" arrivalSpeed="1.06" duration="129.70" routeLength="1517.73" waitingTime="6.30" waitingCount="1" stopTime="0.00" timeLoss="17.43" rerouteNo="0" devices="tripinfo_randUni18177:1" vType="passenger1" speedFactor="0.97" vaporized=""/>
    <tripinfo id="randUni15613:1" depart="2461.20" departLane="-30892#20_0" departPos="6.49" departSpeed="0.00" departDelay="0.01" arrival="2562.00" arrivalLane="--31186#1_0" arrivalPos="17.70" arrivalSpeed="1.13" duration="100.80" routeLength="1323.43" waitingTime="0.00" waitingCount="0" stopTime="0.00" timeLoss="14.37" rerouteNo="0" devices="tripinfo_randUni15613:1" vType="passenger1" speedFactor="1.10" vaporized=""/>
    <tripinfo id="randUni12881:1" depart="2581.00" departLane="--30892#22_0" departPos="41.78" departSpeed="0.00" departDelay="0.00" arrival="2613.70" arrivalLane="--30892#20_0" arrivalPos="10.62" arrivalSpeed="0.75" duration="32.70" routeLength="264.08" waitingTime="4.60" waitingCount="1" stopTime="0.00" timeLoss="11.59" rerouteNo="0" devices="tripinfo_randUni12881:1" vType="passenger2b" speedFactor="0.90" vaporized=""/>
    <tripinfo id="randUni3822:1" depart="2647.30" departLane="--32558_0" departPos="6.33" departSpeed="0.00" departDelay="0.00" arrival="2660.10" arrivalLane="-30892#26_0" arrivalPos="11.32" arrivalSpeed="0.89" duration="12.80" routeLength="43.82" waitingTime="2.10" waitingCount="1" stopTime="0.00" timeLoss="9.51" rerouteNo="0" devices="tripinfo_randUni3822:1" vType="passenger1" speedFactor="0.96" vaporized=""/>
    <tripinfo id="randUni18802:1" depart="2621.00" departLane="-32914#1_0" departPos="3.78" departSpeed="0.00" departDelay="0.00" arrival="2663.50" arrivalLane="--31340#0_0" arrivalPos="116.50" arrivalSpeed="1.08" duration="42.50" routeLength="538.30" waitingTime="0.00" waitingCount="0" stopTime="0.00" timeLoss="4.89" rerouteNo="0" devices="tripinfo_randUni18802:1" vType="passenger2b" speedFactor="1.03" vaporized=""/>
    <tripinfo id="randUni1025:1" depart="2725.00" departLane="--31066#3_0" departPos="53.62" departSpeed="0.00" departDelay="0.00" arrival="2808.90" arrivalLane="--30892#20_0" arrivalPos="2.51" arrivalSpeed="0.99" duration="83.90" routeLength="1133.39" waitingTime="0.00" waitingCount="0" stopTime="0.00" timeLoss="9.18" rerouteNo="0" devices="tripinfo_randUni1025:1" vType="passenger1" speedFactor="1.09" vaporized=""/>
    <tripinfo id="randUni12355:1" depart="2802.00" departLane="-30552_0" departPos="72.37" departSpeed="0.00" departDelay="0.07" arrival="2902.20" arrivalLane="-30892#26_0" arrivalPos="174.40" arrivalSpeed="0.76" duration="100.20" routeLength="1325.71" waitingTime="0.00" waitingCount="0" stopTime="0.00" timeLoss="8.23" rerouteNo="0" devices="tripinfo_randUni12355:1" vType="passenger2b" speedFactor="1.04" vaporized=""/>
    <tripinfo id="randUni8128:1" depart="2824.00" departLane="--31948#0_0" departPos="28.34" departSpeed="0.00" departDelay="0.00" arrival="2926.90" arrivalLane="--31340#0_0" arrivalPos="272.91" arrivalSpeed="1.02" duration="102.90" routeLength="1367.44" waitingTime="0.00" waitingCount="0" stopTime="0.00" timeLoss="8.55" rerouteNo="0" devices="tripinfo_randUni8128:1" vType="passenger2b" speedFactor="1.04" vaporized=""/>
    <tripinfo id="randUni4891:1" depart="2863.00" departLane="-31066#2_0" departPos="23.30" departSpeed="0.00" departDelay="0.00" arrival="2957.10" arrivalLane="--30892#20_0" arrivalPos="12.21" arrivalSpeed="1.05" duration="94.10" routeLength="1168.50" waitingTime="0.00" waitingCount="0" stopTime="0.00" timeLoss="9.76" rerouteNo="0" devices="tripinfo_randUni4891:1" vType="passenger5" speedFactor="1.00" vaporized=""/>
    <tripinfo id="randUni660:1" depart="2862.60" departLane="-30892#20_0" departPos="13.07" departSpeed="0.00" departDelay="0.02" arrival="3005.30" arrivalLane="--31340#0_0" arrivalPos="396.66" arrivalSpeed="0.88" duration="142.70" routeLength="1978.92" waitingTime="0.00" waitingCount="0" stopTime="0.00" timeLoss="11.76" rerouteNo="0" devices="tripinfo_randUni660:1" vType="passenger2a" speedFactor="1.09" vaporized=""/>
    <tripinfo id="randUni9525:1" depart="3152.20" departLane="-30552_0" departPos="54.81" departSpeed="0.00" departDelay="0.07" arrival="3227.30" arrivalLane="-32332#0_0" arrivalPos="110.15" arrivalSpeed="0.96" duration="75.10" routeLength="715.76" waitingTime="4.90" waitingCount="1" stopTime="0.00" timeLoss="16.34" rerouteNo="0" devices="tripinfo_randUni9525:1" vType="passenger1" speedFactor="0.88" vaporized=""/>
    <tripinfo id="randUni14352:1" depart="3221.80" departLane="-31340#0_0" departPos="603.08" departSpeed="0.00" departDelay="0.09" arrival="3256.50" arrivalLane="-31066#1_0" arrivalPos="1.22" arrivalSpeed="0.89" duration="34.70" routeLength="354.98" waitingTime="0.00" waitingCount="0" stopTime="0.00" timeLoss="4.65" rerouteNo="0" devices="tripinfo_randUni14352:1" vType="passenger1" speedFactor="0.85" vaporized=""/>
    <tripinfo id="randUni16659:1" depart="3149.00" departLane="-32874#2_0" departPos="64.99" departSpeed="0.00" departDelay="0.00" arrival="3278.20" arrivalLane="--30892#20_0" arrivalPos="16.07" arrivalSpeed="0.90" duration="129.20" routeLength="1138.60" waitingTime="25.40" waitingCount="1" stopTime="0.00" timeLoss="38.18" rerouteNo="0" devices="tripinfo_randUni16659:1" vType="passenger2a" speedFactor="0.90" vaporized=""/>
    <tripinfo id="randUni472:1" depart="3333.00" departLane="--30346#0_0" departPos="57.18" departSpeed="0.00" departDelay="0.00" arrival="3395.10" arrivalLane="--30892#20_0" arrivalPos="9.48" arrivalSpeed="0.88" duration="62.10" routeLength="569.66" waitingTime="5.70" waitingCount="1" stopTime="0.00" timeLoss="14.13" rerouteNo="0" devices="tripinfo_randUni472:1" vType="passenger1" speedFactor="0.85" vaporized=""/>
    <tripinfo id="randUni15698:1" depart="3471.00" departLane="--30892#20_0" departPos="27.38" departSpeed="0.00" departDelay="0.00" arrival="3471.10" arrivalLane="--30892#20_0" arrivalPos="3.28" arrivalSpeed="0.00" duration="0.10" routeLength="-24.10" waitingTime="0.10" waitingCount="1" stopTime="0.00" timeLoss="0.10" rerouteNo="0" devices="tripinfo_randUni15698:1" vType="passenger1" speedFactor="1.17" vaporized=""/>
    <tripinfo id="randUni5761:1" depart="3563.80" departLane="-31340#0_0" departPos="374.04" departSpeed="0.00" departDelay="0.04" arrival="3695.40" arrivalLane="-32558_0" arrivalPos="12.60" arrivalSpeed="0.78" duration="131.60" routeLength="1662.61" waitingTime="0.50" waitingCount="1" stopTime="0.00" timeLoss="13.88" rerouteNo="0" devices="tripinfo_randUni5761:1" vType="passenger1" speedFactor="1.02" vaporized=""/>
    <tripinfo id="randUni13708:1" depart="3633.00" departLane="-32874#1_0" departPos="104.59" departSpeed="0.00" departDelay="0.00" arrival="3754.70" arrivalLane="-31066#8_1" arrivalPos="148.13" arrivalSpeed="1.09" duration="121.70" routeLength="1082.17" waitingTime="34.20" waitingCount="1" stopTime="0.00" timeLoss="50.61" rerouteNo="0" devices="tripinfo_randUni13708:1" vType="passenger1" speedFactor="1.10" vaporized=""/>
    <tripinfo id="randUni17743:1" depart="3760.00" departLane="-31066#0_0" departPos="1.96" departSpeed="0.00" departDelay="0.00" arrival="3810.40" arrivalLane="--31340#0_0" arrivalPos="265.08" arrivalSpeed="1.03" duration="50.40" routeLength="575.65" waitingTime="0.00" waitingCount="0" stopTime="0.00" timeLoss="4.30" rerouteNo="0" devices="tripinfo_randUni17743:1" vType="passenger1" speedFactor="0.90" vaporized=""/>
    <tripinfo id="randUni17830:1" depart="3758.80" departLane="-30892#20_0" departPos="14.61" departSpeed="0.00" departDelay="0.01" arrival="3881.40" arrivalLane="-30892#26_0" arrivalPos="71.59" arrivalSpeed="0.90" duration="122.60" routeLength="941.19" waitingTime="39.90" waitingCount="2" stopTime="0.00" timeLoss="54.57" rerouteNo="0" devices="tripinfo_randUni17830:1" vType="passenger1" speedFactor="1.00" vaporized=""/>
    <tripinfo id="randUni17538:1" depart="3749.60" departLane="--30892#26_0" departPos="24.61" departSpeed="0.00" departDelay="0.05" arrival="3882.20" arrivalLane="--30892#20_0" arrivalPos="14.28" arrivalSpeed="0.90" duration="132.60" routeLength="1084.65" waitingTime="40.20" waitingCount="2" stopTime="0.00" timeLoss="54.76" rerouteNo="0" devices="tripinfo_randUni17538:1" vType="passenger1" speedFactor="1.00" vaporized=""/>
    <tripinfo id="randUni15731:1" depart="3931.40" departLane="-30892#20_0" departPos="24.47" departSpeed="0.00" departDelay="0.04" arrival="3999.50" arrivalLane="-32474#0_0" arrivalPos="23.36" arrivalSpeed="0.77" duration="68.10" routeLength="960.36" waitingTime="0.00" waitingCount="0" stopTime="0.00" timeLoss="7.59" rerouteNo="0" devices="tripinfo_randUni15731:1" vType="passenger1" speedFactor="1.14" vaporized=""/>
    <tripinfo id="randUni11606:1" depart="4021.00" departLane="-30552_0" departPos="3.73" departSpeed="0.00" departDelay="0.00" arrival="4065.00" arrivalLane="-31066#5_1" arrivalPos="46.28" arrivalSpeed="0.96" duration="44.00" routeLength="495.81" waitingTime="0.00" waitingCount="0" stopTime="0.00" timeLoss="7.19" rerouteNo="0" devices="tripinfo_randUni11606:1" vType="passenger1" speedFactor="0.97" vaporized=""/>
    <tripinfo id="randUni12113:1" depart="4062.50" departLane="--30892#26_0" departPos="94.70" departSpeed="0.00" departDelay="0.06" arrival="4081.60" arrivalLane="-32558_1" arrivalPos="21.10" arrivalSpeed="0.98" duration="19.10" routeLength="190.96" waitingTime="0.00" waitingCount="0" stopTime="0.00" timeLoss="6.40" rerouteNo="0" devices="tripinfo_randUni12113:1" vType="passenger2b" speedFactor="1.08" vaporized=""/>
    <tripinfo id="randUni18470:1" depart="4070.20" departLane="-30892#20_0" departPos="21.16" departSpeed="0.00" departDelay="0.06" arrival="4124.70" arrivalLane="-31948#0_0" arrivalPos="6.02" arrivalSpeed="1.13" duration="54.50" routeLength="737.62" waitingTime="0.00" waitingCount="0" stopTime="0.00" timeLoss="7.06" rerouteNo="0" devices="tripinfo_randUni18470:1" vType="passenger3" speedFactor="1.12" vaporized=""/>
    <tripinfo id="randUni7076:1" depart="3999.40" departLane="-30892#20_0" departPos="15.04" departSpeed="0.00" departDelay="0.04" arrival="4157.90" arrivalLane="-30892#26_0" arrivalPos="168.99" arrivalSpeed="0.99" duration="158.50" routeLength="1038.16" waitingTime="71.20" waitingCount="2" stopTime="0.00" timeLoss="85.48" rerouteNo="0" devices="tripinfo_randUni7076:1" vType="passenger2b" speedFactor="1.02" vaporized=""/>
    <tripinfo id="randUni15899:1" depart="4098.00" departLane="-31340#4_0" departPos="72.11" departSpeed="0.00" departDelay="0.00" arrival="4166.90" arrivalLane="--31340#0_0" arrivalPos="459.96" arrivalSpeed="0.93" duration="68.90" routeLength="882.35" waitingTime="0.00" waitingCount="0" stopTime="0.00" timeLoss="6.37" rerouteNo="0" devices="tripinfo_randUni15899:1" vType="passenger3" speedFactor="1.02" vaporized=""/>
    <tripinfo id="randUni3030:1" depart="4140.00" departLane="-30892#20_0" departPos="26.49" departSpeed="0.00" departDelay="0.05" arrival="4236.20" arrivalLane="-32332#1_0" arrivalPos="18.89" arrivalSpeed="0.90" duration="96.20" routeLength="1146.98" waitingTime="0.00" waitingCount="0" stopTime="0.00" timeLoss="12.54" rerouteNo="0" devices="tripinfo_randUni3030:1" vType="passenger4" speedFactor="0.99" vaporized=""/>
    <tripinfo id="randUni16252:1" depart="4194.20" departLane="-31340#0_0" departPos="100.13" departSpeed="0.00" departDelay="0.09" arrival="4285.90" arrivalLane="--31698_0" arrivalPos="47.08" arrivalSpeed="0.77" duration="91.70" routeLength="1122.26" waitingTime="0.00" waitingCount="0" stopTime="0.00" timeLoss="5.53" rerouteNo="0" devices="tripinfo_randUni16252:1" vType="passenger2a" speedFactor="0.94" vaporized=""/>
    <tripinfo id="randUni8847:1" depart="4238.30" departLane="-31340#0_0" departPos="280.94" departSpeed="0.00" departDelay="0.04" arrival="4403.20" arrivalLane="--30892#20_0" arrivalPos="11.64" arrivalSpeed="1.10" duration="164.90" routeLength="1910.29" waitingTime="0.00" waitingCount="0" stopTime="0.00" timeLoss="9.03" rerouteNo="0" devices="tripinfo_randUni8847:1" vType="passenger2a" speedFactor="0.88" vaporized=""/>
    <tripinfo id="randUni10370:1" depart="4341.60" departLane="--32558_0" departPos="17.55" departSpeed="0.00" departDelay="0.08" arrival="4516.10" arrivalLane="--31340#0_0" arrivalPos="583.22" arrivalSpeed="0.99" duration="174.50" routeLength="1807.79" waitingTime="19.50" waitingCount="1" stopTime="0.00" timeLoss="30.98" rerouteNo="0" devices="tripinfo_randUni10370:1" vType="passenger2b" speedFactor="0.91" vaporized=""/>
    <tripinfo id="randUni8307:1" depart="4425.00" departLane="--30892#26_0" departPos="67.21" departSpeed="0.00" departDelay="0.09" arrival="4525.20" arrivalLane="--30892#20_0" arrivalPos="10.79" arrivalSpeed="0.73" duration="100.20" routeLength="1038.56" waitingTime="9.40" waitingCount="1" stopTime="0.00" timeLoss="18.45" rerouteNo="0" devices="tripinfo_randUni8307:1" vType="passenger1" speedFactor="0.91" vaporized=""/>
    <tripinfo id="randUni12177:1" depart="4490.00" departLane="--31340#3_0" departPos="7.61" departSpeed="0.00" departDelay="0.00" arrival="4607.50" arrivalLane="--30892#20_0" arrivalPos="20.78" arrivalSpeed="1.11" duration="117.50" routeLength="1502.67" waitingTime="0.00" waitingCount="0" stopTime="0.00" timeLoss="13.48" rerouteNo="0" devices="tripinfo_randUni12177:1" vType="passenger2a" speedFactor="1.04" vaporized=""/>
    <tripinfo id="randUni12565:1" depart="4492.20" departLane="-31340#0_0" departPos="558.51" departSpeed="0.00" departDelay="0.06" arrival="4620.70" arrivalLane="--30892#20_0" arrivalPos="11.89" arrivalSpeed="1.10" duration="128.50" routeLength="1655.50" waitingTime="0.00" waitingCount="0" stopTime="0.00" timeLoss="11.90" rerouteNo="0" devices="tripinfo_randUni12565:1" vType="passenger4" speedFactor="1.02" vaporized=""/>